SiC super cell

5776 atoms
4 atom types

0 21.800000 xlo xhi
0 21.800000 ylo yhi
0 21.800000 zlo zhi

Masses

1 28.0855
2 12.0107
3 12.0107
4 12.0107

Atoms

1 1 0.000000 0.000000 0.000000
2 1 2.180000 2.180000 0.000000
3 1 2.180000 0.000000 2.180000
4 1 0.000000 2.180000 2.180000
5 1 0.000000 0.000000 4.360000
6 1 2.180000 2.180000 4.360000
7 1 2.180000 0.000000 6.540000
8 1 0.000000 2.180000 6.540000
9 1 0.000000 0.000000 8.720000
10 1 2.180000 2.180000 8.720000
11 1 2.180000 0.000000 10.900000
12 1 0.000000 2.180000 10.900000
13 1 0.000000 0.000000 13.080000
14 1 2.180000 2.180000 13.080000
15 1 2.180000 0.000000 15.260000
16 1 0.000000 2.180000 15.260000
17 1 0.000000 0.000000 17.440000
18 1 2.180000 2.180000 17.440000
19 1 2.180000 0.000000 19.620000
20 1 0.000000 2.180000 19.620000
21 1 0.000000 4.360000 0.000000
22 1 2.180000 6.540000 0.000000
23 1 2.180000 4.360000 2.180000
24 1 0.000000 6.540000 2.180000
25 1 0.000000 4.360000 4.360000
26 1 2.180000 6.540000 4.360000
27 1 2.180000 4.360000 6.540000
28 1 0.000000 6.540000 6.540000
29 1 0.000000 4.360000 8.720000
30 1 2.180000 6.540000 8.720000
31 1 2.180000 4.360000 10.900000
32 1 0.000000 6.540000 10.900000
33 1 0.000000 4.360000 13.080000
34 1 2.180000 6.540000 13.080000
35 1 2.180000 4.360000 15.260000
36 1 0.000000 6.540000 15.260000
37 1 0.000000 4.360000 17.440000
38 1 2.180000 6.540000 17.440000
39 1 2.180000 4.360000 19.620000
40 1 0.000000 6.540000 19.620000
41 1 0.000000 8.720000 0.000000
42 1 2.180000 10.900000 0.000000
43 1 2.180000 8.720000 2.180000
44 1 0.000000 10.900000 2.180000
45 1 0.000000 8.720000 4.360000
46 1 2.180000 10.900000 4.360000
47 1 2.180000 8.720000 6.540000
48 1 0.000000 10.900000 6.540000
49 1 0.000000 8.720000 8.720000
50 1 2.180000 10.900000 8.720000
51 1 2.180000 8.720000 10.900000
52 1 0.000000 10.900000 10.900000
53 1 0.000000 8.720000 13.080000
54 1 2.180000 10.900000 13.080000
55 1 2.180000 8.720000 15.260000
56 1 0.000000 10.900000 15.260000
57 1 0.000000 8.720000 17.440000
58 1 2.180000 10.900000 17.440000
59 1 2.180000 8.720000 19.620000
60 1 0.000000 10.900000 19.620000
61 1 0.000000 13.080000 0.000000
62 1 2.180000 15.260000 0.000000
63 1 2.180000 13.080000 2.180000
64 1 0.000000 15.260000 2.180000
65 1 0.000000 13.080000 4.360000
66 1 2.180000 15.260000 4.360000
67 1 2.180000 13.080000 6.540000
68 1 0.000000 15.260000 6.540000
69 1 0.000000 13.080000 8.720000
70 1 2.180000 15.260000 8.720000
71 1 2.180000 13.080000 10.900000
72 1 0.000000 15.260000 10.900000
73 1 0.000000 13.080000 13.080000
74 1 2.180000 15.260000 13.080000
75 1 2.180000 13.080000 15.260000
76 1 0.000000 15.260000 15.260000
77 1 0.000000 13.080000 17.440000
78 1 2.180000 15.260000 17.440000
79 1 2.180000 13.080000 19.620000
80 1 0.000000 15.260000 19.620000
81 1 0.000000 17.440000 0.000000
82 1 2.180000 19.620000 0.000000
83 1 2.180000 17.440000 2.180000
84 1 0.000000 19.620000 2.180000
85 1 0.000000 17.440000 4.360000
86 1 2.180000 19.620000 4.360000
87 1 2.180000 17.440000 6.540000
88 1 0.000000 19.620000 6.540000
89 1 0.000000 17.440000 8.720000
90 1 2.180000 19.620000 8.720000
91 1 2.180000 17.440000 10.900000
92 1 0.000000 19.620000 10.900000
93 1 0.000000 17.440000 13.080000
94 1 2.180000 19.620000 13.080000
95 1 2.180000 17.440000 15.260000
96 1 0.000000 19.620000 15.260000
97 1 0.000000 17.440000 17.440000
98 1 2.180000 19.620000 17.440000
99 1 2.180000 17.440000 19.620000
100 1 0.000000 19.620000 19.620000
101 1 4.360000 0.000000 0.000000
102 1 6.540000 2.180000 0.000000
103 1 6.540000 0.000000 2.180000
104 1 4.360000 2.180000 2.180000
105 1 4.360000 0.000000 4.360000
106 1 6.540000 2.180000 4.360000
107 1 6.540000 0.000000 6.540000
108 1 4.360000 2.180000 6.540000
109 1 4.360000 0.000000 8.720000
110 1 6.540000 2.180000 8.720000
111 1 6.540000 0.000000 10.900000
112 1 4.360000 2.180000 10.900000
113 1 4.360000 0.000000 13.080000
114 1 6.540000 2.180000 13.080000
115 1 6.540000 0.000000 15.260000
116 1 4.360000 2.180000 15.260000
117 1 4.360000 0.000000 17.440000
118 1 6.540000 2.180000 17.440000
119 1 6.540000 0.000000 19.620000
120 1 4.360000 2.180000 19.620000
121 1 4.360000 4.360000 0.000000
122 1 6.540000 6.540000 0.000000
123 1 6.540000 4.360000 2.180000
124 1 4.360000 6.540000 2.180000
125 1 4.360000 4.360000 4.360000
126 1 6.540000 6.540000 4.360000
127 1 6.540000 4.360000 6.540000
128 1 4.360000 6.540000 6.540000
129 1 4.360000 4.360000 8.720000
130 1 6.540000 6.540000 8.720000
131 1 6.540000 4.360000 10.900000
132 1 4.360000 6.540000 10.900000
133 1 4.360000 4.360000 13.080000
134 1 6.540000 6.540000 13.080000
135 1 6.540000 4.360000 15.260000
136 1 4.360000 6.540000 15.260000
137 1 4.360000 4.360000 17.440000
138 1 6.540000 6.540000 17.440000
139 1 6.540000 4.360000 19.620000
140 1 4.360000 6.540000 19.620000
141 1 4.360000 8.720000 0.000000
142 1 6.540000 10.900000 0.000000
143 1 6.540000 8.720000 2.180000
144 1 4.360000 10.900000 2.180000
145 1 4.360000 8.720000 4.360000
146 1 6.540000 10.900000 4.360000
147 1 6.540000 8.720000 6.540000
148 1 4.360000 10.900000 6.540000
149 1 4.360000 8.720000 8.720000
150 1 6.540000 10.900000 8.720000
151 1 6.540000 8.720000 10.900000
152 1 4.360000 10.900000 10.900000
153 1 4.360000 8.720000 13.080000
154 1 6.540000 10.900000 13.080000
155 1 6.540000 8.720000 15.260000
156 1 4.360000 10.900000 15.260000
157 1 4.360000 8.720000 17.440000
158 1 6.540000 10.900000 17.440000
159 1 6.540000 8.720000 19.620000
160 1 4.360000 10.900000 19.620000
161 1 4.360000 13.080000 0.000000
162 1 6.540000 15.260000 0.000000
163 1 6.540000 13.080000 2.180000
164 1 4.360000 15.260000 2.180000
165 1 4.360000 13.080000 4.360000
166 1 6.540000 15.260000 4.360000
167 1 6.540000 13.080000 6.540000
168 1 4.360000 15.260000 6.540000
169 1 4.360000 13.080000 8.720000
170 1 6.540000 15.260000 8.720000
171 1 6.540000 13.080000 10.900000
172 1 4.360000 15.260000 10.900000
173 1 4.360000 13.080000 13.080000
174 1 6.540000 15.260000 13.080000
175 1 6.540000 13.080000 15.260000
176 1 4.360000 15.260000 15.260000
177 1 4.360000 13.080000 17.440000
178 1 6.540000 15.260000 17.440000
179 1 6.540000 13.080000 19.620000
180 1 4.360000 15.260000 19.620000
181 1 4.360000 17.440000 0.000000
182 1 6.540000 19.620000 0.000000
183 1 6.540000 17.440000 2.180000
184 1 4.360000 19.620000 2.180000
185 1 4.360000 17.440000 4.360000
186 1 6.540000 19.620000 4.360000
187 1 6.540000 17.440000 6.540000
188 1 4.360000 19.620000 6.540000
189 1 4.360000 17.440000 8.720000
190 1 6.540000 19.620000 8.720000
191 1 6.540000 17.440000 10.900000
192 1 4.360000 19.620000 10.900000
193 1 4.360000 17.440000 13.080000
194 1 6.540000 19.620000 13.080000
195 1 6.540000 17.440000 15.260000
196 1 4.360000 19.620000 15.260000
197 1 4.360000 17.440000 17.440000
198 1 6.540000 19.620000 17.440000
199 1 6.540000 17.440000 19.620000
200 1 4.360000 19.620000 19.620000
201 1 8.720000 0.000000 0.000000
202 1 10.900000 2.180000 0.000000
203 1 10.900000 0.000000 2.180000
204 1 8.720000 2.180000 2.180000
205 1 8.720000 0.000000 4.360000
206 1 10.900000 2.180000 4.360000
207 1 10.900000 0.000000 6.540000
208 1 8.720000 2.180000 6.540000
209 1 8.720000 0.000000 8.720000
210 1 10.900000 2.180000 8.720000
211 1 10.900000 0.000000 10.900000
212 1 8.720000 2.180000 10.900000
213 1 8.720000 0.000000 13.080000
214 1 10.900000 2.180000 13.080000
215 1 10.900000 0.000000 15.260000
216 1 8.720000 2.180000 15.260000
217 1 8.720000 0.000000 17.440000
218 1 10.900000 2.180000 17.440000
219 1 10.900000 0.000000 19.620000
220 1 8.720000 2.180000 19.620000
221 1 8.720000 4.360000 0.000000
222 1 10.900000 6.540000 0.000000
223 1 10.900000 4.360000 2.180000
224 1 8.720000 6.540000 2.180000
225 1 8.720000 4.360000 4.360000
226 1 10.900000 6.540000 4.360000
227 1 10.900000 4.360000 6.540000
228 1 8.720000 6.540000 6.540000
229 1 8.720000 4.360000 8.720000
230 1 10.900000 6.540000 8.720000
231 1 10.900000 4.360000 10.900000
232 1 8.720000 6.540000 10.900000
233 1 8.720000 4.360000 13.080000
234 1 10.900000 6.540000 13.080000
235 1 10.900000 4.360000 15.260000
236 1 8.720000 6.540000 15.260000
237 1 8.720000 4.360000 17.440000
238 1 10.900000 6.540000 17.440000
239 1 10.900000 4.360000 19.620000
240 1 8.720000 6.540000 19.620000
241 1 8.720000 8.720000 0.000000
242 1 10.900000 10.900000 0.000000
243 1 10.900000 8.720000 2.180000
244 1 8.720000 10.900000 2.180000
245 1 8.720000 8.720000 4.360000
246 1 10.900000 10.900000 4.360000
247 1 10.900000 8.720000 6.540000
248 1 8.720000 10.900000 6.540000
249 1 8.720000 8.720000 8.720000
250 1 10.900000 10.900000 8.720000
251 1 10.900000 8.720000 10.900000
252 1 8.720000 10.900000 10.900000
253 1 8.720000 8.720000 13.080000
254 1 10.900000 10.900000 13.080000
255 1 10.900000 8.720000 15.260000
256 1 8.720000 10.900000 15.260000
257 1 8.720000 8.720000 17.440000
258 1 10.900000 10.900000 17.440000
259 1 10.900000 8.720000 19.620000
260 1 8.720000 10.900000 19.620000
261 1 8.720000 13.080000 0.000000
262 1 10.900000 15.260000 0.000000
263 1 10.900000 13.080000 2.180000
264 1 8.720000 15.260000 2.180000
265 1 8.720000 13.080000 4.360000
266 1 10.900000 15.260000 4.360000
267 1 10.900000 13.080000 6.540000
268 1 8.720000 15.260000 6.540000
269 1 8.720000 13.080000 8.720000
270 1 10.900000 15.260000 8.720000
271 1 10.900000 13.080000 10.900000
272 1 8.720000 15.260000 10.900000
273 1 8.720000 13.080000 13.080000
274 1 10.900000 15.260000 13.080000
275 1 10.900000 13.080000 15.260000
276 1 8.720000 15.260000 15.260000
277 1 8.720000 13.080000 17.440000
278 1 10.900000 15.260000 17.440000
279 1 10.900000 13.080000 19.620000
280 1 8.720000 15.260000 19.620000
281 1 8.720000 17.440000 0.000000
282 1 10.900000 19.620000 0.000000
283 1 10.900000 17.440000 2.180000
284 1 8.720000 19.620000 2.180000
285 1 8.720000 17.440000 4.360000
286 1 10.900000 19.620000 4.360000
287 1 10.900000 17.440000 6.540000
288 1 8.720000 19.620000 6.540000
289 1 8.720000 17.440000 8.720000
290 1 10.900000 19.620000 8.720000
291 1 10.900000 17.440000 10.900000
292 1 8.720000 19.620000 10.900000
293 1 8.720000 17.440000 13.080000
294 1 10.900000 19.620000 13.080000
295 1 10.900000 17.440000 15.260000
296 1 8.720000 19.620000 15.260000
297 1 8.720000 17.440000 17.440000
298 1 10.900000 19.620000 17.440000
299 1 10.900000 17.440000 19.620000
300 1 8.720000 19.620000 19.620000
301 1 13.080000 0.000000 0.000000
302 1 15.260000 2.180000 0.000000
303 1 15.260000 0.000000 2.180000
304 1 13.080000 2.180000 2.180000
305 1 13.080000 0.000000 4.360000
306 1 15.260000 2.180000 4.360000
307 1 15.260000 0.000000 6.540000
308 1 13.080000 2.180000 6.540000
309 1 13.080000 0.000000 8.720000
310 1 15.260000 2.180000 8.720000
311 1 15.260000 0.000000 10.900000
312 1 13.080000 2.180000 10.900000
313 1 13.080000 0.000000 13.080000
314 1 15.260000 2.180000 13.080000
315 1 15.260000 0.000000 15.260000
316 1 13.080000 2.180000 15.260000
317 1 13.080000 0.000000 17.440000
318 1 15.260000 2.180000 17.440000
319 1 15.260000 0.000000 19.620000
320 1 13.080000 2.180000 19.620000
321 1 13.080000 4.360000 0.000000
322 1 15.260000 6.540000 0.000000
323 1 15.260000 4.360000 2.180000
324 1 13.080000 6.540000 2.180000
325 1 13.080000 4.360000 4.360000
326 1 15.260000 6.540000 4.360000
327 1 15.260000 4.360000 6.540000
328 1 13.080000 6.540000 6.540000
329 1 13.080000 4.360000 8.720000
330 1 15.260000 6.540000 8.720000
331 1 15.260000 4.360000 10.900000
332 1 13.080000 6.540000 10.900000
333 1 13.080000 4.360000 13.080000
334 1 15.260000 6.540000 13.080000
335 1 15.260000 4.360000 15.260000
336 1 13.080000 6.540000 15.260000
337 1 13.080000 4.360000 17.440000
338 1 15.260000 6.540000 17.440000
339 1 15.260000 4.360000 19.620000
340 1 13.080000 6.540000 19.620000
341 1 13.080000 8.720000 0.000000
342 1 15.260000 10.900000 0.000000
343 1 15.260000 8.720000 2.180000
344 1 13.080000 10.900000 2.180000
345 1 13.080000 8.720000 4.360000
346 1 15.260000 10.900000 4.360000
347 1 15.260000 8.720000 6.540000
348 1 13.080000 10.900000 6.540000
349 1 13.080000 8.720000 8.720000
350 1 15.260000 10.900000 8.720000
351 1 15.260000 8.720000 10.900000
352 1 13.080000 10.900000 10.900000
353 1 13.080000 8.720000 13.080000
354 1 15.260000 10.900000 13.080000
355 1 15.260000 8.720000 15.260000
356 1 13.080000 10.900000 15.260000
357 1 13.080000 8.720000 17.440000
358 1 15.260000 10.900000 17.440000
359 1 15.260000 8.720000 19.620000
360 1 13.080000 10.900000 19.620000
361 1 13.080000 13.080000 0.000000
362 1 15.260000 15.260000 0.000000
363 1 15.260000 13.080000 2.180000
364 1 13.080000 15.260000 2.180000
365 1 13.080000 13.080000 4.360000
366 1 15.260000 15.260000 4.360000
367 1 15.260000 13.080000 6.540000
368 1 13.080000 15.260000 6.540000
369 1 13.080000 13.080000 8.720000
370 1 15.260000 15.260000 8.720000
371 1 15.260000 13.080000 10.900000
372 1 13.080000 15.260000 10.900000
373 1 13.080000 13.080000 13.080000
374 1 15.260000 15.260000 13.080000
375 1 15.260000 13.080000 15.260000
376 1 13.080000 15.260000 15.260000
377 1 13.080000 13.080000 17.440000
378 1 15.260000 15.260000 17.440000
379 1 15.260000 13.080000 19.620000
380 1 13.080000 15.260000 19.620000
381 1 13.080000 17.440000 0.000000
382 1 15.260000 19.620000 0.000000
383 1 15.260000 17.440000 2.180000
384 1 13.080000 19.620000 2.180000
385 1 13.080000 17.440000 4.360000
386 1 15.260000 19.620000 4.360000
387 1 15.260000 17.440000 6.540000
388 1 13.080000 19.620000 6.540000
389 1 13.080000 17.440000 8.720000
390 1 15.260000 19.620000 8.720000
391 1 15.260000 17.440000 10.900000
392 1 13.080000 19.620000 10.900000
393 1 13.080000 17.440000 13.080000
394 1 15.260000 19.620000 13.080000
395 1 15.260000 17.440000 15.260000
396 1 13.080000 19.620000 15.260000
397 1 13.080000 17.440000 17.440000
398 1 15.260000 19.620000 17.440000
399 1 15.260000 17.440000 19.620000
400 1 13.080000 19.620000 19.620000
401 1 17.440000 0.000000 0.000000
402 1 19.620000 2.180000 0.000000
403 1 19.620000 0.000000 2.180000
404 1 17.440000 2.180000 2.180000
405 1 17.440000 0.000000 4.360000
406 1 19.620000 2.180000 4.360000
407 1 19.620000 0.000000 6.540000
408 1 17.440000 2.180000 6.540000
409 1 17.440000 0.000000 8.720000
410 1 19.620000 2.180000 8.720000
411 1 19.620000 0.000000 10.900000
412 1 17.440000 2.180000 10.900000
413 1 17.440000 0.000000 13.080000
414 1 19.620000 2.180000 13.080000
415 1 19.620000 0.000000 15.260000
416 1 17.440000 2.180000 15.260000
417 1 17.440000 0.000000 17.440000
418 1 19.620000 2.180000 17.440000
419 1 19.620000 0.000000 19.620000
420 1 17.440000 2.180000 19.620000
421 1 17.440000 4.360000 0.000000
422 1 19.620000 6.540000 0.000000
423 1 19.620000 4.360000 2.180000
424 1 17.440000 6.540000 2.180000
425 1 17.440000 4.360000 4.360000
426 1 19.620000 6.540000 4.360000
427 1 19.620000 4.360000 6.540000
428 1 17.440000 6.540000 6.540000
429 1 17.440000 4.360000 8.720000
430 1 19.620000 6.540000 8.720000
431 1 19.620000 4.360000 10.900000
432 1 17.440000 6.540000 10.900000
433 1 17.440000 4.360000 13.080000
434 1 19.620000 6.540000 13.080000
435 1 19.620000 4.360000 15.260000
436 1 17.440000 6.540000 15.260000
437 1 17.440000 4.360000 17.440000
438 1 19.620000 6.540000 17.440000
439 1 19.620000 4.360000 19.620000
440 1 17.440000 6.540000 19.620000
441 1 17.440000 8.720000 0.000000
442 1 19.620000 10.900000 0.000000
443 1 19.620000 8.720000 2.180000
444 1 17.440000 10.900000 2.180000
445 1 17.440000 8.720000 4.360000
446 1 19.620000 10.900000 4.360000
447 1 19.620000 8.720000 6.540000
448 1 17.440000 10.900000 6.540000
449 1 17.440000 8.720000 8.720000
450 1 19.620000 10.900000 8.720000
451 1 19.620000 8.720000 10.900000
452 1 17.440000 10.900000 10.900000
453 1 17.440000 8.720000 13.080000
454 1 19.620000 10.900000 13.080000
455 1 19.620000 8.720000 15.260000
456 1 17.440000 10.900000 15.260000
457 1 17.440000 8.720000 17.440000
458 1 19.620000 10.900000 17.440000
459 1 19.620000 8.720000 19.620000
460 1 17.440000 10.900000 19.620000
461 1 17.440000 13.080000 0.000000
462 1 19.620000 15.260000 0.000000
463 1 19.620000 13.080000 2.180000
464 1 17.440000 15.260000 2.180000
465 1 17.440000 13.080000 4.360000
466 1 19.620000 15.260000 4.360000
467 1 19.620000 13.080000 6.540000
468 1 17.440000 15.260000 6.540000
469 1 17.440000 13.080000 8.720000
470 1 19.620000 15.260000 8.720000
471 1 19.620000 13.080000 10.900000
472 1 17.440000 15.260000 10.900000
473 1 17.440000 13.080000 13.080000
474 1 19.620000 15.260000 13.080000
475 1 19.620000 13.080000 15.260000
476 1 17.440000 15.260000 15.260000
477 1 17.440000 13.080000 17.440000
478 1 19.620000 15.260000 17.440000
479 1 19.620000 13.080000 19.620000
480 1 17.440000 15.260000 19.620000
481 1 17.440000 17.440000 0.000000
482 1 19.620000 19.620000 0.000000
483 1 19.620000 17.440000 2.180000
484 1 17.440000 19.620000 2.180000
485 1 17.440000 17.440000 4.360000
486 1 19.620000 19.620000 4.360000
487 1 19.620000 17.440000 6.540000
488 1 17.440000 19.620000 6.540000
489 1 17.440000 17.440000 8.720000
490 1 19.620000 19.620000 8.720000
491 1 19.620000 17.440000 10.900000
492 1 17.440000 19.620000 10.900000
493 1 17.440000 17.440000 13.080000
494 1 19.620000 19.620000 13.080000
495 1 19.620000 17.440000 15.260000
496 1 17.440000 19.620000 15.260000
497 1 17.440000 17.440000 17.440000
498 1 19.620000 19.620000 17.440000
499 1 19.620000 17.440000 19.620000
500 1 17.440000 19.620000 19.620000
